LAMMPS data file via write_data, version 23 Jun 2022, timestep = 5000

4000 atoms
2 atom types

-2.3686184102787244 39.268618410278904 xlo xhi
-2.3686184102787244 39.268618410278904 ylo yhi
-2.3686184102787244 39.268618410278904 zlo zhi

Masses

1 63.546
2 91.224

Atoms # atomic

4 2 -1.9703139183156517 -0.43636523258999577 -0.4747185804931425 0 0 0
402 2 0.8165532396092205 -0.7608949391146497 1.3275419953394079 0 0 0
43 2 0.3293373599436095 1.68399298055633 -0.1575504977907386 0 0 0
8 1 2.2815690307515384 -0.5267237042412304 -0.9228188561302766 0 0 0
12 2 4.941219966743704 -0.61929643580839 -0.9001328629336888 0 0 0
47 1 2.6954166371906765 1.1040067318184763 1.2794097063983207 0 0 0
10 1 7.578202741665674 0.3625320271338403 -1.8247224591751499 0 0 0
11 1 7.436754919353753 -2.2019525152301362 -1.2080359883951246 0 0 0
410 2 8.263409429452713 -0.002686398868312994 1.086772397120965 0 0 0
409 2 6.441545758082005 -2.303853735882495 1.3865825792384976 0 0 0
16 1 9.773613160597062 -0.931226188686808 -1.4258902699875182 0 0 0
52 1 6.007794469441051 1.617243724036235 0.012022015978414038 0 0 0
14 1 12.000224890000833 -0.04397570650747272 -1.7487913373261885 0 0 0
414 2 11.435557069735486 0.010717441154014962 1.0855192760910972 0 0 0
20 1 13.83311521926263 0.22857133370898985 -0.12307032443270546 0 0 0
417 1 14.222366022645305 -1.9826513981410623 1.234105755475287 0 0 0
19 2 16.44165366843137 -0.584914290427265 -0.25925615935433677 0 0 0
418 1 15.556347588758223 1.5032476479448238 1.1943878294870067 0 0 0
21 2 17.964642898915944 -2.3224161545574855 -1.8837843622144403 0 0 0
24 1 19.545297406395374 -0.054601409728948065 -1.336676386085729 0 0 0
421 1 19.122693073762782 -1.2391720813033267 0.9076626707260027 0 0 0
422 1 21.432001395915357 -0.18335812662825107 0.2794357326400086 0 0 0
23 1 20.77362507886926 -2.1957459075049406 -1.0860537345484873 0 0 0
425 1 21.663953023260927 -2.2010538749056106 1.7039559824512216 0 0 0
28 1 23.33313388949764 -1.8400525273024446 -1.425178466481503 0 0 0
67 2 24.329012691202756 0.8010310158862901 -1.160744660096095 0 0 0
426 2 24.203383637923416 -0.87106285285441 1.212540985283445 0 0 0
32 1 25.884374794906012 -1.4516192583074585 -1.0348502521501717 0 0 0
465 1 22.84631428080478 1.255924989014491 1.640295859206328 0 0 0
31 2 28.851864044413677 -1.5749590437691443 -0.26652629801106237 0 0 0
469 2 26.84304918877102 0.7588537329609399 1.060060575393328 0 0 0
36 1 29.955490226352293 0.8584343280060271 -0.6075787513670151 0 0 0
30 2 27.275677007816604 0.4113128947288937 -2.2467687883493763 0 0 0
34 2 31.934833652214746 -1.492068786739408 -0.5543296416982846 0 0 0
77 1 34.302105872683846 0.35896525994088335 -1.0580761726928585 0 0 0
40 2 34.81577546964187 -0.768839960228237 1.1658343330096939 0 0 0
75 1 32.26938285254465 1.645075048147864 -0.4111698060574868 0 0 0
477 1 34.13924668834245 1.7686586297913176 1.4089777800168353 0 0 0
38 1 36.91278475076017 -0.5692875983058383 -0.8725921071986202 0 0 0
79 2 36.93805388903207 1.6803329145001995 0.9183775812719344 0 0 0
81 2 -1.7469924660170768 4.712897393242956 -2.1001676699838114 0 0 0
83 1 0.312469165443081 4.602423917295323 -0.11662563047282218 0 0 0
481 1 -2.233747671990885 5.509538603815649 0.48934461854421757 0 0 0
41 1 -1.788475226460465 2.019996123647106 -2.102673191686681 0 0 0
44 1 -2.187448455114757 2.7621256490443806 0.24943542215383332 0 0 0
85 2 1.531908329082189 5.88461037848794 -2.2112809614216005 0 0 0
45 2 3.2506703313234926 2.073837616152883 -1.3425943924621615 0 0 0
48 1 3.4077915926007982 4.811512167034464 -0.1586570861333873 0 0 0
446 1 4.33094829312484 2.998328010688575 1.4162177674829952 0 0 0
485 2 1.8992946646432112 3.988845980806321 1.7277690849543894 0 0 0
489 1 5.97040213725175 4.141325227713931 -0.2652380032795974 0 0 0
51 2 8.555055267604613 2.634971570881695 -0.6784995454226642 0 0 0
450 2 8.281606006030685 5.347531903316651 0.8372269370146784 0 0 0
91 2 7.353086318760657 5.68758782321879 -2.02801784486831 0 0 0
453 1 9.650762217922686 2.087357635604791 1.7895990490605667 0 0 0
55 1 11.268650836249838 2.140785057042781 -0.41526584975359837 0 0 0
56 2 10.516529900736806 4.673508961578078 -1.7114107112734251 0 0 0
457 1 13.239889785791883 2.310602254470248 0.9928243278180601 0 0 0
54 1 13.132959390763077 2.027444459281732 -1.6771318638336594 0 0 0
60 1 13.06517102362914 4.239994551788435 -0.5504121020072996 0 0 0
454 2 11.206262290669695 4.305028712194723 1.4352423085194264 0 0 0
57 2 15.673546019352228 2.7830471474083844 -1.138963218220435 0 0 0
97 1 14.949168732376933 5.847442899510277 -1.1357312524118455 0 0 0
58 2 17.8144991009422 5.347127376905206 -1.1053256826866538 0 0 0
458 2 16.78668807137848 4.062397518130357 1.6859387139797382 0 0 0
59 2 18.546417826072854 2.230680128083091 -0.36372581075543786 0 0 0
63 2 21.684658685305948 2.4255657896946676 -0.5891318401942953 0 0 0
62 1 20.093244654132565 4.179220904184164 -2.123096118568184 0 0 0
64 1 20.24740274358234 4.554038034435099 0.5263256736597611 0 0 0
461 1 20.468356510820936 2.0951022482855213 1.6712059554810894 0 0 0
68 1 22.88658976168367 5.0126301723363635 -0.21316991729598533 0 0 0
466 2 25.076673428419976 3.149828913729414 0.4168943338491044 0 0 0
72 1 26.311876994105198 3.203400780510455 -1.963067985118146 0 0 0
109 2 25.269801173132382 5.826191009721878 -1.194321169018444 0 0 0
66 1 23.80138751694958 3.4605932180960286 -2.0665706620603568 0 0 0
71 1 28.188209311109617 2.4674591956856258 -0.815612904762378 0 0 0
470 2 28.153221754407653 4.791138631559485 0.11067866716979874 0 0 0
513 1 30.26556029464567 5.495193081954377 1.4324655458160385 0 0 0
76 2 30.89380731385152 3.74373306569637 -1.2826338757577833 0 0 0
473 2 29.74043115570392 2.620812078264743 1.5387854285910978 0 0 0
80 2 34.62756787013254 3.019810552750285 -0.9914752079800795 0 0 0
115 1 33.17253948123373 5.68413983962633 -0.916624508818815 0 0 0
474 2 32.68287740728598 4.0911354462761365 1.3218239510682768 0 0 0
78 1 37.37355923912605 1.997333361266407 -1.8059378652465576 0 0 0
517 1 35.35828453104297 4.796418032033328 0.6818757725744756 0 0 0
119 1 37.39373054840874 4.2894003883914475 -0.5459416401533063 0 0 0
84 1 -0.54357853013129 6.906910179350834 -0.5146579174864431 0 0 0
123 1 0.7471183360242546 8.776487203914252 -1.3800739685149255 0 0 0
521 2 -1.7984941388411362 8.303964740586451 1.1799125489771676 0 0 0
121 2 -2.1784255638204186 9.21423677509736 -1.6580216614895655 0 0 0
525 1 1.7238873066517584 10.009999816527664 0.92672095645679 0 0 0
88 2 2.189237229323435 7.1415592124712 0.6095686417731394 0 0 0
87 2 5.3704487758691 6.928931970539629 0.27494110820899387 0 0 0
86 1 3.6550311391915145 7.718508651982364 -2.059887106321854 0 0 0
127 1 3.9038386898576225 9.346339817353199 0.020753244237475058 0 0 0
92 2 6.055389344765336 9.30384430799455 -1.765699374413527 0 0 0
529 2 6.3577507015617485 9.474128539563091 1.4566921157573596 0 0 0
96 2 9.69729495319723 7.61667159912706 -2.2444517048401313 0 0 0
490 1 8.272626541854644 8.085114665643367 -0.11011592711807075 0 0 0
533 2 9.665136600840908 9.957190687442596 1.6961674738834285 0 0 0
493 1 10.651391851829933 7.014093658942445 0.6112268489249891 0 0 0
95 2 12.415234609207275 6.787186638298618 -1.7029069103583259 0 0 0
497 2 13.429545764032449 6.392821529771799 1.2186973270195143 0 0 0
135 2 11.915751890359683 9.452145102522126 -0.6265902386832138 0 0 0
100 1 14.607751102458831 8.457232185876853 -1.19465180059837 0 0 0
99 1 16.211049863853265 7.006551801888539 0.7493613293840593 0 0 0
98 1 16.651141684528568 7.357886345536599 -2.2024600349496395 0 0 0
104 2 17.999135541227247 8.890804303540637 -0.4537587142238408 0 0 0
498 2 15.285856845015449 9.151248438358556 1.7291416471428356 0 0 0
103 2 20.70435009963179 6.949167802919484 -1.0575275739206063 0 0 0
501 2 18.760095756407967 6.565473106110703 1.7640946329553953 0 0 0
502 2 21.055360779681845 8.88691022826296 1.3224493721080166 0 0 0
107 1 23.27654313787129 7.681078903342101 -1.7556526138746997 0 0 0
106 1 25.54800822649045 8.516617905133282 -1.157252643820115 0 0 0
108 1 23.12114771000103 9.660349919305261 -0.3938167738594654 0 0 0
505 1 23.24861130934621 7.210089865241878 0.8471733371753056 0 0 0
506 2 25.29836907782759 9.11579842371462 1.4818748896013616 0 0 0
113 1 30.249813588892845 6.349477715093217 -1.0488389744678805 0 0 0
509 1 27.2043731014815 7.376619682410033 0.7616475031859351 0 0 0
111 2 28.07559338143457 7.636785004920199 -1.9498237537951952 0 0 0
112 1 27.58955681246151 9.86787302817074 -0.033553842744073546 0 0 0
510 2 29.705185518775174 8.424228424426877 1.2489174089246269 0 0 0
151 2 30.393028989417182 9.895731671714278 -1.6887786146951118 0 0 0
116 1 32.03519597220531 7.920664357523277 -0.8484352993258581 0 0 0
155 1 33.49665118520745 9.960729413195086 -1.7875797487452871 0 0 0
514 1 32.347229299331055 7.0472930874225455 1.5033601957544644 0 0 0
553 2 32.65241564174647 9.761681076163713 0.9659279612542289 0 0 0
120 2 35.02373650547009 7.557124697895049 -0.17981978386213815 0 0 0
118 1 38.05743936455321 6.920689549234115 -0.9287588042234804 0 0 0
159 1 37.14352875571139 9.318507298448791 0.48030662471892166 0 0 0
518 1 37.18981326287661 6.871673190759822 1.4919029164447941 0 0 0
157 2 36.294329791696526 9.472060230157725 -2.1752115203551514 0 0 0
122 2 -0.2254946800409829 11.301088259030045 -0.3625546007237434 0 0 0
161 1 -1.5820285848980196 13.650375367381825 -0.6201664022443085 0 0 0
165 2 1.5959303977805475 13.444642508387368 -2.0125833343009947 0 0 0
128 1 2.9160603832379888 12.098542827494201 -0.017612849660299905 0 0 0
132 2 5.665569119922435 12.176179952948138 -0.29638491523342125 0 0 0
565 1 4.177368308158683 13.71215826411721 1.6166030026694376 0 0 0
125 2 2.8582654089684856 10.375698720211732 -2.263893003131473 0 0 0
131 1 8.127244132546991 10.68380693427387 -0.42137056150218843 0 0 0
171 2 8.82410561642118 13.752967321402343 -0.03866227632025198 0 0 0
537 2 13.00690005848073 11.27607310135888 1.6291965224094698 0 0 0
136 1 10.523242251240132 11.805711409702992 -0.215338148416019 0 0 0
140 1 13.087285484420612 11.980761331585448 -0.9183183184782635 0 0 0
139 2 15.740026137881387 10.980352603940432 -0.9721138095477171 0 0 0
179 2 14.908266969423165 13.940460042220852 -0.7191359741878454 0 0 0
181 2 17.73217780223768 13.963858098283318 -1.4101355972913825 0 0 0
538 2 15.990486797263102 12.30837633984503 1.776011605490271 0 0 0
143 1 20.887911044376672 11.134749895779322 -0.5758853242644638 0 0 0
144 2 18.578305173552156 11.875108752683111 0.3905417537317454 0 0 0
142 1 21.62542772417048 13.3274757203396 0.3185887472546282 0 0 0
185 1 22.944749633132677 14.113312658019035 -2.195909843440556 0 0 0
145 1 23.060207679075425 11.901941954669008 -1.5052199987525978 0 0 0
147 1 25.10917561173604 11.085425829619354 -0.5706819940986463 0 0 0
148 1 24.060918616124212 13.70804605601006 0.005978900128202303 0 0 0
545 2 23.411027410744538 11.463197894332664 1.7508292564648273 0 0 0
549 1 26.190538194510804 11.770776047515318 1.609275136276494 0 0 0
152 2 26.83576829461592 13.390269732239794 -0.46825809279189673 0 0 0
150 2 29.39421675836502 13.25059468327373 -1.7809250887486605 0 0 0
550 2 29.56926628290085 11.735397160808848 0.7875180758848784 0 0 0
156 2 32.4519143085589 12.41020197920572 -0.9709642902216048 0 0 0
160 1 35.00957511941829 10.823925156000714 -0.03705461889533004 0 0 0
124 1 39.01076900328866 10.76560299483514 1.1216865285952096 -1 0 0
197 2 35.652368743130836 13.784084009718509 -0.626419825015702 0 0 0
158 2 37.99839192464564 11.914917447128534 -1.3203489469804648 0 0 0
199 1 37.908138846516 14.088022730408433 0.8308136636547694 0 0 0
163 1 0.5462141667209389 14.388705992438796 0.7620409693908174 0 0 0
162 1 -0.546230251401399 15.768685332632577 -1.757837150391174 0 0 0
164 1 -1.5550773587777638 15.797314798325571 0.5728878009044922 0 0 0
203 1 -0.1471268169137274 18.107506128389954 -0.6802156056299088 0 0 0
562 1 0.465201864672837 16.987556895184543 1.6054756612820502 0 0 0
601 2 -2.1378944796756487 18.380805741691066 1.3851834918091912 0 0 0
167 1 4.05398186912853 14.431358174701218 -0.6611545229224383 0 0 0
168 2 2.106023322485487 16.219434921888375 -0.6181356951697303 0 0 0
566 1 4.075266590703996 16.571635111910552 0.9085108531958697 0 0 0
569 1 6.259967499987384 14.717726552020816 0.8398663664712646 0 0 0
169 1 6.504786114199732 14.711120376219492 -1.6709571851763598 0 0 0
172 2 6.399983659783217 17.132113655095253 -0.5042198724438316 0 0 0
176 2 9.701572877370394 16.811120159171697 -0.8721974898080613 0 0 0
570 1 8.049886929748228 16.271484651477582 1.606934732792468 0 0 0
175 2 11.898207749589094 14.447078961130089 -0.304579387471018 0 0 0
180 2 13.832958904179533 16.54439171324824 -2.0499039284391647 0 0 0
574 2 12.752882869180485 17.453956642744362 1.1319185594337005 0 0 0
215 1 12.047267529935924 18.409591380965207 -1.4950255971217734 0 0 0
578 2 15.84635898304366 16.447286237658965 1.002161648027771 0 0 0
178 1 16.350819447048973 16.460110436056546 -2.0394360353652154 0 0 0
621 1 17.84122066615841 18.43521638984523 1.50975509172494 0 0 0
581 2 18.57866131980591 14.854262693247147 1.3310001801377627 0 0 0
184 2 18.764456377479554 17.274474818880858 -0.9853740412233114 0 0 0
183 1 20.274515796423596 15.053289892186578 -0.962085609738756 0 0 0
582 2 20.68991442968066 17.41471523413748 1.4189627232322541 0 0 0
188 2 22.68091878877611 16.236173314352914 -0.31918804850325644 0 0 0
187 1 25.080236859896896 15.497050361961058 -1.5521797822610441 0 0 0
227 2 26.57023252575068 17.94342177136226 -1.0161992688169754 0 0 0
586 2 25.392940238641103 16.29052155825241 1.2117969862210003 0 0 0
186 1 24.00711273769548 18.32963060155268 -1.7802358782934444 0 0 0
191 2 30.586724487125547 14.650076933407306 0.962791298093487 0 0 0
192 1 28.179387132930437 15.855892806052676 -0.6111151835617261 0 0 0
231 1 29.251299677406855 18.21270288562434 -0.7546313321763036 0 0 0
190 2 30.747238415450887 15.784451956457906 -1.8883436647218743 0 0 0
629 2 28.49940027387458 17.06127324257572 1.6869354267508387 0 0 0
196 2 31.631371075783502 17.621574211832417 0.22277482165457066 0 0 0
195 1 33.20685839243954 14.994955164996362 0.18521692175058352 0 0 0
200 2 34.821955935329164 17.024244854696217 -0.5274113969309194 0 0 0
198 2 38.260025726052554 15.582359194654927 -1.4640118323424864 0 0 0
598 1 37.2826208870363 16.848094587467042 0.6080692187238731 0 0 0
201 2 38.788395173589315 18.354898165016664 -1.855667693562001 -1 0 0
202 2 -0.6816728166226917 20.46989575617412 -2.076927554976976 0 0 0
602 2 -0.021251897685610907 20.192543035148653 1.4043039577848515 0 0 0
245 1 1.7392127361040308 21.377478192112555 -0.6664878807668567 0 0 0
243 1 -0.3734765355092333 22.440997715234296 0.12247742063700903 0 0 0
605 1 2.14428298667887 18.529234432518688 0.7672952770316338 0 0 0
208 2 2.2357784877302374 18.804792554233465 -2.3295856051892554 0 0 0
206 1 4.149775809818943 21.00179379151337 -1.1958747785156012 0 0 0
207 1 4.26723254276047 18.541690783701917 -0.6174435477730035 0 0 0
606 2 3.5051133829412966 21.051670866114893 1.4328507974718463 0 0 0
213 1 7.9830493279939985 18.682808224533048 -1.947939124791141 0 0 0
212 1 6.530493690734479 20.208323968134103 -0.33805772318386196 0 0 0
211 1 7.763034212969681 18.811561538592702 0.7583610335373276 0 0 0
249 1 6.048576274455402 22.161414684477425 -2.103550346964912 0 0 0
251 1 8.446822851220347 22.420314107453198 -0.9038354328779786 0 0 0
216 2 9.82406058351198 20.078074613625382 -0.19240965773591312 0 0 0
220 2 12.847590862959732 20.599546508925837 0.09321091263474474 0 0 0
253 2 10.993353285711763 22.092060415325246 -2.1895355585209413 0 0 0
653 1 10.436389263576169 22.493112929683367 0.7463406701916984 0 0 0
219 2 15.317820468447803 18.926816059284718 -0.6342041666836398 0 0 0
259 2 15.808634636806891 22.339259815235092 -0.519636911156101 0 0 0
224 2 18.230050389490426 20.259281665067885 -0.4913099567876466 0 0 0
618 1 16.722286787455744 21.199028443291372 1.7919511228290417 0 0 0
223 2 21.22095579360159 19.10524986512501 -1.298869088266873 0 0 0
263 2 20.59029501228958 21.87827399317943 -0.8288653304980587 0 0 0
622 1 20.708244354184362 20.085060577770435 1.2667411822987424 0 0 0
661 2 19.213574916396485 22.61064920075357 1.774636380136873 0 0 0
665 2 22.599088571817486 21.898780319154113 1.210344005746479 0 0 0
228 1 23.67014588724642 20.900995523011463 -0.9433618721561834 0 0 0
625 2 23.505832855191446 18.94752715486472 0.9148733427334464 0 0 0
232 2 26.312715739671308 20.489127400057153 0.6524196803130528 0 0 0
269 1 26.18401581263607 22.594143268492584 -1.56685809818684 0 0 0
236 1 30.53660719416256 20.657579593594484 -0.523683255311906 0 0 0
271 1 28.29242969848294 22.069703826543975 -0.10194147370194107 0 0 0
630 2 29.116864092723617 19.98958687271855 1.6818537977552865 0 0 0
230 2 28.06113206097527 20.54323115211893 -2.315106978989684 0 0 0
235 1 33.71336622666966 19.661336410690716 -0.29922197796654343 0 0 0
240 2 34.85036177302483 21.793649047401917 1.5976354255628284 0 0 0
275 1 32.68453632907365 22.30704303356314 -0.27991155038553944 0 0 0
277 2 34.777220495601185 21.883283592387702 -1.9538776762298566 0 0 0
234 1 32.54607117106482 20.57187483273519 -2.343673317356945 0 0 0
204 1 39.04633689627345 20.790458544494776 0.08881267610473208 -1 0 0
239 2 36.36967629499256 19.48303606377147 0.18928078300439075 0 0 0
279 1 36.90739339733185 22.460476270306874 -0.0192348296585347 0 0 0
238 1 37.409655448258114 20.86403729479529 -2.27425629436463 0 0 0
244 1 -1.4730625449117913 25.022852055146767 -0.6092779701025666 0 0 0
248 2 1.6281196055862026 24.364156165846904 -0.30257575148190474 0 0 0
642 1 -0.28204077733455396 24.653845391639997 1.722851281662763 0 0 0
287 2 4.340999523861622 25.93953660968101 0.3274439546697281 0 0 0
3847 1 3.94328246079601 23.386220304086137 -1.0541193900154793 0 0 1
246 1 3.54879014576632 25.417803123330447 -2.1320506620251227 0 0 0
247 2 5.966217088241083 22.9114992008421 0.6499106423812875 0 0 0
252 2 6.480632914203866 25.072200561314336 -1.4928064027273724 0 0 0
650 1 8.36608341390011 24.003607852163157 1.107892336868706 0 0 0
291 1 7.927943830675892 26.409399798899056 0.26336188304511027 0 0 0
256 2 9.944265643351413 24.860131576951307 -0.820259379470988 0 0 0
254 1 12.864264278496707 26.15910684942688 -2.1020809251893424 0 0 0
255 2 12.832051411442267 23.690007779452184 -0.14699816140240363 0 0 0
260 1 15.143227585999886 25.320163710638674 -0.4698633346409774 0 0 0
658 1 16.569327191424048 23.888943764143015 1.6786739472026084 0 0 0
261 1 18.403607957718762 22.849293184201453 -1.950172120931615 0 0 0
264 2 18.291192819597025 24.926420163748226 -0.24241078150786324 0 0 0
662 2 21.467142047336857 24.857240216247686 0.6052346874266036 0 0 0
303 1 20.653957610683683 26.67452947795674 -1.2076243444004462 0 0 0
267 2 23.67781452229714 23.513643214612188 -1.1263090506780629 0 0 0
268 1 24.750688004046008 26.15226163392584 -0.30481300609732703 0 0 0
666 2 25.143398707222733 23.540080284150186 1.460530038111515 0 0 0
305 1 23.122416232295006 26.048504406621383 -2.3195163969353296 0 0 0
272 2 27.352898934450383 24.72416384951051 -0.37076849052915123 0 0 0
276 2 30.275040447775922 23.695801362066543 -0.029695537702508826 0 0 0
313 1 30.626562883812927 25.14783508672942 -2.2141811592262917 0 0 0
311 2 29.51577750194032 26.72717075863303 0.24881691468068443 0 0 0
274 1 32.85238017141259 23.989154074717423 -2.0925825745267645 0 0 0
280 1 34.62267692446401 24.01226447621425 0.06345570385837758 0 0 0
315 2 32.64475514425156 26.2257724318919 -0.6874873022275712 0 0 0
317 2 35.38863673631731 25.80623705045482 -2.125835607183413 0 0 0
241 1 39.014150133694955 22.632170828852104 -1.3491365943422522 -1 0 0
678 1 37.70674240757917 24.65672378733647 -0.4876895973016199 0 0 0
681 2 38.82629556305466 26.126195833221004 1.7718992102391387 -1 0 0
281 1 38.36437808072794 26.63243671438404 -1.5798427079547324 -1 0 0
641 2 39.20693081019531 22.98782586019958 1.5347569953177864 -1 0 0
319 1 36.42685464597523 26.563430820318388 0.3121127057667163 0 0 0
282 1 -0.20049722325866717 29.228007268873593 -1.4655523771369476 0 0 0
283 2 -0.29470551193495736 27.142804904695243 0.3267148356661269 0 0 0
323 1 0.07750628212478428 29.815252599710956 1.0982404071932816 0 0 0
285 2 2.0454034136313983 27.469532721858968 -1.802596605966964 0 0 0
288 2 2.602923692218708 28.582656288988392 0.9194819221652709 0 0 0
286 1 4.3120065584304506 29.42511786917763 -0.920266939198822 0 0 0
327 1 4.303327263707323 30.71443929402851 1.2029098507637657 0 0 0
289 1 5.2023197068251426 27.563463539697516 -1.962710683071579 0 0 0
292 2 5.950420523166743 28.431251945975017 0.9159634724008083 0 0 0
296 2 9.771766455088116 28.518067981674296 0.17830384182077716 0 0 0
329 1 6.515056914297656 29.97307015212257 -1.9966258929945997 0 0 0
333 1 9.30010195585277 30.185454606397336 -1.6783340585293012 0 0 0
294 2 12.092564596790245 28.972255425360824 -2.067584096538015 0 0 0
295 2 12.419373985416614 26.852486712163103 0.4913511084005433 0 0 0
737 2 13.815754452787944 29.729442430256352 1.2299631265986029 0 0 0
335 1 11.345197895592039 30.611714119474946 0.12408591235105697 0 0 0
293 1 10.504682138462123 26.98322681261694 -2.306295964685534 0 0 0
299 1 16.88640934605682 26.93706096738407 -1.0222872835053076 0 0 0
701 1 18.184420637981308 27.106107439791653 1.3068106147986225 0 0 0
300 1 14.618430131047464 28.151057156995083 -1.1306902295630055 0 0 0
698 1 15.551117388266793 27.093459798342455 1.2998027038732145 0 0 0
337 2 14.818317355578442 30.76890245343122 -2.097416900616228 0 0 0
339 2 16.594109972807733 29.442640132586185 0.37472485965827723 0 0 0
304 2 19.117812470227836 28.779497978401025 -0.7022159062928129 0 0 0
745 2 21.23493205086124 30.57743235354942 0.793711890544331 0 0 0
741 1 18.634416615865074 30.56180118622642 1.5021651740609179 0 0 0
308 2 22.866405546164494 28.015564125538777 -0.41864875242178506 0 0 0
312 2 25.63325600063823 28.70352147757578 0.6872964810646723 0 0 0
349 2 26.359913963498865 30.807263232471232 -1.5314841175694611 0 0 0
307 1 27.039494876633814 27.471678626651123 -0.9886678139363265 0 0 0
314 1 30.51200908177946 27.815100243737575 -2.0495243977676902 0 0 0
351 2 28.685968984558862 29.786579423937514 0.14263382252659115 0 0 0
353 2 30.49895565037322 30.93862643225485 -1.8159753469583422 0 0 0
316 1 31.459760172445858 28.936243609326485 -0.02628217496046945 0 0 0
320 1 34.24063610057608 28.13547454874854 -0.07465320732619712 0 0 0
753 1 31.070358908118024 30.88032053557208 1.3294540236511125 0 0 0
355 2 33.378335092855075 30.774748322799205 -0.6815959160074052 0 0 0
284 2 38.76094532888996 28.76807119941004 0.006993881300572499 -1 0 0
318 2 36.34121612247648 28.717887461103302 -1.9445277123747455 0 0 0
321 2 -1.851583269429404 31.480862686006883 -0.6880236937320742 0 0 0
324 2 -1.3932710612983248 34.806329837693376 0.25601444287259434 0 0 0
722 2 0.10216793577423278 32.55827312675106 1.6006935493260235 0 0 0
363 1 1.2766736048408798 34.327185678465725 -0.06923490860019035 0 0 0
325 2 1.6481458152829858 31.120643616543095 -0.913629044599082 0 0 0
328 1 2.965200407121845 32.63322454911809 0.961316881764695 0 0 0
326 2 4.7902085141183495 32.058163070732974 -1.0964402122242682 0 0 0
726 1 5.483861315601618 32.86815981983878 1.6333249261987302 0 0 0
365 2 3.071180387730259 34.387861587898186 -1.921256878522432 0 0 0
367 1 5.305559182113003 35.08589387587565 -0.3214745260891934 0 0 0
765 2 3.3841160962106054 34.959971523953634 1.569828864291426 0 0 0
332 1 7.135747585501851 33.61372207128419 -0.08778141329654066 0 0 0
331 2 7.383470276391546 30.958134536946474 0.2574563705900206 0 0 0
330 1 7.7611492521357714 32.29439973473703 -2.292879597798638 0 0 0
336 2 10.052885266476347 32.885539610953266 -0.42628686622591155 0 0 0
371 1 8.990552677700796 34.956587273213415 1.4383584941459515 0 0 0
334 1 12.117854035525134 32.001437319662315 -2.038623082426602 0 0 0
340 1 13.56657420686727 32.15891050622523 0.13750938002207244 0 0 0
375 2 13.039303650837741 34.63376394356195 -1.2360577749545627 0 0 0
777 1 14.10622676198919 34.12987016633304 1.410176551775673 0 0 0
773 1 11.539038684736159 34.639837283549184 1.398467953805885 0 0 0
338 1 15.435775685688649 33.24045933138052 -1.7203424875100617 0 0 0
738 2 16.41531560783764 32.70098132210943 0.6610778656489517 0 0 0
381 1 17.74204539152685 34.31883431280936 -1.4788801830995344 0 0 0
781 1 17.900570512142522 35.01050571346742 0.8537230485087139 0 0 0
341 2 17.70417669007335 31.5074965329766 -2.1637241688956883 0 0 0
343 1 20.28715584786556 30.941380936287644 -1.8186206354963195 0 0 0
344 1 19.158917132652377 32.74123579183584 0.10215078407016966 0 0 0
348 1 21.705121995690387 32.72239966831164 -0.8343830388511595 0 0 0
387 2 22.211640287436477 34.420658615563596 0.9807490102844816 0 0 0
383 1 19.992800341266694 35.07290186489816 -0.600253350618707 0 0 0
346 2 24.35985614794732 33.52483903645566 -2.0052342572246937 0 0 0
347 2 24.32040998635271 31.747211507736804 0.455677391200777 0 0 0
392 1 26.451193396602555 33.725379259098716 -0.26068032191544793 0 0 0
352 1 27.050061957265864 31.74044741887224 1.029499092806899 0 0 0
391 2 29.37295396861087 32.94312526220759 0.47485298079223 0 0 0
393 2 31.10892826106811 34.049757432548994 -2.178513392797377 0 0 0
354 2 34.22095851751476 33.771485144766466 -1.5036451573850391 0 0 0
356 1 31.99657593444172 32.862046636446344 0.22557032254012588 0 0 0
754 1 33.360173611937746 34.85210661185902 1.1227514519411006 0 0 0
359 2 36.280571485344446 31.23895063961511 -0.16066893808409272 0 0 0
358 2 37.55675914648057 34.18262284045971 -1.4701747219439727 0 0 0
360 1 35.901384741693775 34.012279920591425 0.8446164802070707 0 0 0
758 1 38.3527234915682 33.05730910529958 1.129950350683964 0 0 0
3 2 0.48480168931406176 38.903891390978025 -1.0262741232069974 0 -1 0
361 1 -1.8521340259353862 35.86272750876464 -2.3244327512749647 0 0 0
362 1 0.8023769206602672 36.35287271664665 -2.005863265578857 0 0 0
364 1 -1.7961803876549078 37.33726002130046 0.04298535090943189 0 0 0
762 2 0.7759332026466202 36.819616955003276 1.310185051319546 0 0 0
1 2 -2.2114931159210114 38.63083032412765 -2.2862669314322366 0 -1 0
405 2 3.383167813879918 39.14752514710371 1.2512009702230098 0 -1 0
7 1 5.271470412578371 38.060544361479764 -0.8386173016559678 0 -1 0
368 1 3.1040780429703223 36.74015191805509 -0.5172672510092914 0 0 0
766 1 5.102643909171893 37.03285603737751 1.5658434805753383 0 0 0
5 2 3.1034551527167795 38.66876472210799 -2.3143261852594725 0 -1 0
413 2 9.683711129688966 38.95058463772801 0.788218353564777 0 -1 0
13 1 9.523837296171763 38.24778990499521 -2.1951440210899484 0 -1 0
372 2 7.54751254806302 36.740273154558196 0.11664073230897869 0 0 0
15 2 12.307987114146748 39.18132776580935 -0.7715129667321088 0 -1 0
376 2 10.54732588218858 36.34071242011114 -0.5045038103301824 0 0 0
774 2 13.46828573904651 36.875393611410985 1.2937183922155564 0 0 0
379 1 15.58548394816353 35.488075611514525 -0.1461594720068924 0 0 0
380 2 15.166337115917356 38.117404366936384 -1.1930585970479861 0 0 0
384 1 17.514944188796242 36.64740065831933 -1.0365493229494454 0 0 0
778 2 16.745588285510973 38.142667381684866 1.2217322451416552 0 0 0
385 1 22.2436847690964 35.14680112070251 -1.8898438675744813 0 0 0
782 2 19.55412070894832 37.694070432183096 0.5870236016902669 0 0 0
388 2 22.447995348018882 37.363594307506645 -0.08648823794074215 0 0 0
429 1 26.718877135816598 39.14505246196087 1.156456693554986 0 -1 0
27 1 24.915949113609194 38.16353081279338 0.06083815988435329 0 -1 0
386 1 24.783592827799463 35.612649809888325 -0.3287814779612036 0 0 0
29 2 27.101297792950774 37.654444546002146 -1.7489980743166917 0 -1 0
790 2 26.954413525098822 36.33665145048363 0.992492515313713 0 0 0
33 2 30.520102548244743 37.466148365408415 -1.7956753315207887 0 -1 0
390 1 28.685098154354435 35.39055183688548 -0.8587595897243426 0 0 0
396 2 29.64119957296175 37.498292868282476 1.1385952860857018 0 0 0
35 2 32.604320725352764 37.669223975014376 0.9299324637252733 0 -1 0
37 2 34.88221885645002 38.97968700124247 -1.465407184771436 0 -1 0
394 1 32.98520981310987 36.120558619167014 -1.203866083338927 0 0 0
395 1 31.031490695303 35.30611044535774 0.3828548227223417 0 0 0
397 1 35.24490219530467 36.34493099231686 -0.291881073921764 0 0 0
39 2 37.52976846576857 38.74985705909189 0.10618192527947476 0 -1 0
398 1 37.399538716879626 36.97036218713087 -1.75677477887801 0 0 0
399 1 37.68734574406757 36.06479184271689 0.6841511164160909 0 0 0
400 1 35.18646856578706 38.34373907295247 1.6468324314330134 0 0 0
441 2 -1.8775243856776282 0.7767722999977336 2.243405408815174 0 0 0
404 1 -0.3480274670086319 -0.8095313323319346 4.050783380396462 0 0 0
841 1 -1.8788556843163302 0.700652509185431 5.380357894344108 0 0 0
443 1 0.28239704777277186 1.6143131529329506 4.981044882948698 0 0 0
445 1 0.6354688183061309 1.5077060309040893 2.8145836075419837 0 0 0
406 2 4.930079869306966 0.20103267892534857 2.3051445169366946 0 0 0
408 2 2.330695680924267 -0.3156340108549268 4.005234101119131 0 0 0
806 1 4.8360154876250165 -0.2529760648640971 5.557256386475275 0 0 0
412 1 7.050803417008488 0.004568103000090543 4.014804821076852 0 0 0
810 1 9.178590505766826 -0.09432982967509497 5.825319689379773 0 0 0
411 2 8.915123222225501 -2.0343128650321063 3.7712295592229768 0 0 0
416 1 10.589048160019786 -0.011652417921959611 3.70829520377302 0 0 0
420 2 13.877589330375997 0.28269614840728585 3.33100847382777 0 0 0
853 1 10.800214169955725 1.6393170767097325 5.725061126982826 0 0 0
415 2 12.183570392562883 -2.3114702361531965 3.484272589842284 0 0 0
817 1 14.31071655313016 -1.652514135565985 5.611979697622574 0 0 0
419 2 16.612676438517827 -0.9599860195564042 2.710716333637978 0 0 0
424 1 18.008623491903457 1.3731105104734194 2.2599631990527147 0 0 0
818 2 16.157208143679323 0.13356110475576935 5.743733064333147 0 0 0
423 2 20.520052868039212 -0.20864955202363425 2.968364675338811 0 0 0
821 1 18.511661829686908 -0.6923863617911583 4.670566515818515 0 0 0